24
	Energy:     106.1522178
C         -3.12320        2.51651        0.27687
C         -4.29018        1.53861       -0.09590
C         -1.77423        1.95059       -0.20736
C         -1.55395        0.48287        0.21828
C         -2.89802       -0.30802        0.18129
O         -3.82792        0.33035       -0.68262
C         -2.85790       -1.82438       -0.14839
H         -3.28979       -0.26285        1.22671
O         -1.57179       -2.37550       -0.06806
H         -3.26410       -1.98025       -1.17508
H         -3.52409       -2.36911        0.55778
H         -1.62527       -3.25808       -0.52451
O         -0.57764       -0.06744       -0.63024
H         -1.20574        0.40877        1.28025
H          0.30438        0.13562       -0.21866
O         -0.69665        2.73281        0.24166
H         -1.81105        1.95236       -1.32217
H         -0.73509        3.59774       -0.24171
O         -3.30198        3.78195       -0.31012
H         -3.06855        2.61396        1.38521
H         -4.05661        4.22454        0.15615
O         -5.18441        2.14361       -0.99931
H         -4.86181        1.28269        0.83082
H         -5.86653        2.62156       -0.45645
